TITLE = result_
VARIABLES = "X", "Y", "Rho", "temp", "pressure","qx_flux","qy_flux","vx","vy","Kn-loc","Kn-ref","Kn-gll","vx-ref","vy-ref" 
zone N=3712, E=3648, datapacking=block
varlocation=([1-2]=NODAL,[3-14]=CELLCENTERED)
zonetype=fequadrilateral
7.54496e-16
1.44458
2.87524
4.27821
5.63998
6.94744
8.18799
9.34968
10.4213
11.3926
12.2542
12.9977
13.6161
14.1034
14.4548
14.667
14.738
14.667
14.4548
14.1034
13.6161
12.9977
12.2542
11.3926
10.4213
9.34968
8.18799
6.94744
5.63998
4.27821
2.87524
1.44458
-7.76618e-16
-1.44458
-2.87524
-4.27821
-5.63998
-6.94744
-8.18799
-9.34968
-10.4213
-11.3926
-12.2542
-12.9977
-13.6161
-14.1034
-14.4548
-14.667
-14.738
-14.667
-14.4548
-14.1034
-13.6161
-12.9977
-12.2542
-11.3926
-10.4213
-9.34968
-8.18799
-6.94744
-5.63998
-4.27821
-2.87524
-1.44458
-1
-0.995185
-0.980785
-0.95694
-0.92388
-0.881921
-0.83147
-0.77301
-0.707107
-0.634393
-0.55557
-0.471397
-0.382683
-0.290285
-0.19509
-0.0980171
-1.22465e-16
0.0980171
0.19509
0.290285
0.382683
0.471397
0.55557
0.634393
0.707107
0.77301
0.83147
0.881921
0.92388
0.95694
0.980785
0.995185
1
0.995185
0.980785
0.95694
0.92388
0.881921
0.83147
0.77301
0.707107
0.634393
0.55557
0.471397
0.382683
0.290285
0.19509
0.0980171
0
-0.0980171
-0.19509
-0.290285
-0.382683
-0.471397
-0.55557
-0.634393
-0.707107
-0.77301
-0.83147
-0.881921
-0.92388
-0.95694
-0.980785
-0.995185
-0.0989815
-0.19701
-3.25261e-19
-0.0999915
-0.19902
-0.293141
0.0989815
-1.0842e-18
-0.101049
-0.201125
-0.296132
-0.386449
0.19701
0.0999915
-1.73472e-18
-0.102157
-0.20333
-0.299264
-0.390392
-0.476035
0.293141
0.19902
0.101049
-2.60209e-18
-0.103318
-0.20564
-0.302545
-0.394521
-0.480892
-0.561036
0.386449
0.296132
0.201125
0.102157
-3.68629e-18
-0.104534
-0.208061
-0.305982
-0.398846
-0.485978
-0.566761
-0.640635
0.476035
0.390392
0.299264
0.20333
0.103318
-4.11997e-18
-0.105808
-0.210597
-0.309584
-0.403377
-0.491306
-0.572756
-0.647172
-0.714064
0.561036
0.480892
0.394521
0.302545
0.20564
0.104534
-4.33681e-18
-0.107144
-0.213256
-0.313359
-0.408126
-0.496888
-0.579035
-0.654017
-0.72135
-0.780616
0.640635
0.566761
0.485978
0.398846
0.305982
0.208061
0.105808
-4.11997e-18
-0.108544
-0.216043
-0.317315
-0.413102
-0.502737
-0.585613
-0.661187
-0.72898
-0.788581
-0.83965
0.714064
0.647172
0.572756
0.491306
0.403377
0.309584
0.210597
0.107144
-4.11997e-18
-0.110012
-0.218964
-0.321461
-0.418317
-0.508867
-0.592507
-0.668699
-0.736971
-0.796922
-0.848218
-0.890598
0.780616
0.72135
0.654017
0.579035
0.496888
0.408126
0.313359
0.213256
0.108544
-3.46945e-18
-0.111605
-0.222135
-0.325808
-0.423784
-0.515291
-0.599731
-0.67657
-0.745344
-0.805659
-0.85719
-0.899686
-0.93297
0.83965
0.788581
0.72898
0.661187
0.585613
0.502737
0.413102
0.317315
0.216043
0.110012
-2.27682e-18
-0.113352
-0.225612
-0.330525
-0.429514
-0.522025
-0.607302
-0.684819
-0.754118
-0.814812
-0.866587
-0.909202
-0.94249
-0.966356
0.890598
0.848218
0.796922
0.736971
0.668699
0.592507
0.508867
0.418317
0.321461
0.218964
0.111605
-7.58942e-19
-0.115268
-0.229426
-0.335699
-0.435733
-0.529083
-0.615238
-0.693465
-0.763313
-0.824403
-0.876432
-0.919169
-0.952458
-0.976216
-0.990435
0.93297
0.899686
0.85719
0.805659
0.745344
0.67657
0.599731
0.515291
0.423784
0.325808
0.222135
0.113352
2.05998e-18
-0.11737
-0.233609
-0.341375
-0.442554
-0.536744
-0.623557
-0.702527
-0.772949
-0.834455
-0.886749
-0.929612
-0.9629
-0.986541
-1.00054
-1.00498
0.966356
0.94249
0.909202
0.866587
0.814812
0.754118
0.684819
0.607302
0.522025
0.429514
0.330525
0.225612
0.115268
5.09575e-18
-0.119675
-0.238197
-0.347599
-0.450035
-0.545146
-0.632586
-0.712026
-0.78305
-0.844989
-0.897561
-0.940555
-0.973839
-0.997357
-1.01112
-1.01523
-1.00984
0.990435
0.976216
0.952458
0.919169
0.876432
0.824403
0.763313
0.693465
0.615238
0.529083
0.435733
0.335699
0.229426
0.11737
8.13152e-18
-0.122203
-0.243228
-0.354425
-0.458241
-0.554362
-0.642489
-0.722336
-0.793638
-0.856032
-0.908892
-0.952022
-0.985302
-1.00869
-1.02221
-1.02597
-1.02014
-1.00498
1.00498
1.00054
0.986541
0.9629
0.929612
0.886749
0.834455
0.772949
0.702527
0.623557
0.536744
0.442554
0.341375
0.233609
0.119675
1.20346e-17
-0.124979
-0.248753
-0.361912
-0.46724
-0.56447
-0.65335
-0.733643
-0.805129
-0.867606
-0.920769
-0.964042
-0.997316
-1.02056
-1.03382
-1.03722
-1.03093
-1.01523
-0.990435
1.00984
1.01523
1.01112
0.997357
0.973839
0.940555
0.897561
0.844989
0.78305
0.712026
0.632586
0.545146
0.450035
0.347599
0.238197
0.122203
1.4203e-17
-0.128027
-0.25482
-0.370133
-0.47711
-0.575555
-0.665263
-0.746046
-0.817733
-0.880168
-0.933219
-0.976639
-1.00991
-1.033
-1.04599
-1.049
-1.04223
-1.02597
-1.00054
-0.966356
1.00498
1.02014
1.02597
1.02221
1.00869
0.985302
0.952022
0.908892
0.856032
0.793638
0.722336
0.642489
0.554362
0.458241
0.354425
0.243228
0.124979
2.02746e-17
-0.131373
-0.261481
-0.37916
-0.487947
-0.587713
-0.678328
-0.759649
-0.831557
-0.893947
-0.946731
-0.989845
-1.0231
-1.04605
-1.05874
-1.06135
-1.05408
-1.03722
-1.01112
-0.976216
-0.93297
0.990435
1.01523
1.03093
1.03722
1.03382
1.02056
0.997316
0.964042
0.920769
0.867606
0.805129
0.733643
0.65335
0.56447
0.46724
0.361912
0.248753
0.128027
2.54788e-17
-0.135048
-0.268795
-0.389071
-0.499848
-0.601063
-0.692656
-0.774567
-0.846719
-0.90906
-0.961552
-1.00418
-1.03694
-1.05972
-1.07211
-1.07429
-1.06648
-1.049
-1.02221
-0.986541
-0.94249
-0.890598
0.966356
1.00054
1.02597
1.04223
1.049
1.04599
1.033
1.00991
0.976639
0.933219
0.880168
0.817733
0.746046
0.665263
0.575555
0.47711
0.370133
0.25482
0.131373
2.07083e-17
-0.139081
-0.276823
-0.399953
-0.512914
-0.615722
-0.70839
-0.790928
-0.863348
-0.925635
-0.977808
-1.0199
-1.05195
-1.07404
-1.08612
-1.08785
-1.07949
-1.06135
-1.03382
-0.997357
-0.952458
-0.899686
-0.83965
0.93297
0.976216
1.01112
1.03722
1.05408
1.06135
1.05874
1.04605
1.0231
0.989845
0.946731
0.893947
0.831557
0.759649
0.678328
0.587713
0.487947
0.37916
0.261481
0.135048
-1.0842e-19
-0.143509
-0.285635
-0.411898
-0.527259
-0.631818
-0.725667
-0.808895
-0.881583
-0.943813
-0.995636
-1.03714
-1.06842
-1.0896
-1.10081
-1.10207
-1.09312
-1.07429
-1.04599
-1.00869
-0.9629
-0.909202
-0.848218
-0.780616
0.890598
0.94249
0.986541
1.02221
1.049
1.06648
1.07429
1.07211
1.05972
1.03694
1.00418
0.961552
0.90906
0.846719
0.774567
0.692656
0.601063
0.499848
0.389071
0.268795
0.139081
-2.00577e-17
-0.148369
-0.295308
-0.425011
-0.543007
-0.649488
-0.744636
-0.828623
-0.901609
-0.963749
-1.01519
-1.05605
-1.08648
-1.10665
-1.11675
-1.11697
-1.1074
-1.08785
-1.05874
-1.02056
-0.973839
-0.919169
-0.85719
-0.788581
-0.714064
0.83965
0.899686
0.952458
0.997357
1.03382
1.06135
1.07949
1.08785
1.08612
1.07404
1.05195
1.0199
0.977808
0.925635
0.863348
0.790928
0.70839
0.615722
0.512914
0.399953
0.276823
0.143509
-4.00071e-17
-0.153702
-0.305925
-0.439404
-0.560294
-0.668887
-0.765462
-0.850283
-0.923599
-0.985641
-1.03663
-1.07679
-1.10629
-1.12536
-1.13423
-1.13314
-1.12237
-1.10207
-1.07211
-1.033
-0.985302
-0.929612
-0.866587
-0.796922
-0.72135
-0.640635
0.780616
0.848218
0.909202
0.9629
1.00869
1.04599
1.07429
1.09312
1.10207
1.10081
1.0896
1.06842
1.03714
0.995636
0.943813
0.881583
0.808895
0.725667
0.631818
0.527259
0.411898
0.285635
0.148369
-5.47522e-17
-0.159556
-0.317576
-0.455201
-0.579268
-0.690181
-0.788325
-0.874064
-0.947742
-1.00968
-1.06018
-1.09953
-1.12802
-1.14588
-1.1534
-1.15088
-1.13862
-1.11697
-1.08612
-1.04605
-0.997316
-0.940555
-0.876432
-0.805659
-0.72898
-0.647172
-0.561036
0.714064
0.788581
0.85719
0.919169
0.973839
1.02056
1.05874
1.08785
1.1074
1.11697
1.11675
1.10665
1.08648
1.05605
1.01519
0.963749
0.901609
0.828623
0.744636
0.649488
0.543007
0.425011
0.295308
0.153702
-7.12321e-17
-0.165981
-0.330363
-0.472538
-0.600093
-0.713553
-0.813421
-0.90017
-0.974248
-1.03607
-1.08604
-1.12451
-1.15184
-1.16838
-1.17443
-1.17034
-1.15645
-1.13314
-1.10081
-1.05972
-1.00991
-0.952022
-0.886749
-0.814812
-0.736971
-0.654017
-0.566761
-0.476035
0.640635
0.72135
0.796922
0.866587
0.929612
0.985302
1.033
1.07211
1.10207
1.12237
1.13314
1.13423
1.12536
1.10629
1.07679
1.03663
0.985641
0.923599
0.850283
0.765462
0.668887
0.560294
0.439404
0.305925
0.159556
-7.90383e-17
-0.173031
-0.344395
-0.491564
-0.622948
-0.739206
-0.840967
-0.928827
-1.00335
-1.06505
-1.11443
-1.15194
-1.17801
-1.19306
-1.1975
-1.19168
-1.176
-1.15088
-1.11675
-1.07404
-1.0231
-0.964042
-0.897561
-0.824403
-0.745344
-0.661187
-0.572756
-0.480892
-0.386449
0.561036
0.647172
0.72898
0.805659
0.876432
0.940555
0.997316
1.04605
1.08612
1.11697
1.13862
1.15088
1.1534
1.14588
1.12802
1.09953
1.06018
1.00968
0.947742
0.874064
0.788325
0.690181
0.579268
0.455201
0.317576
0.165981
-6.34258e-17
-0.180767
-0.359793
-0.512443
-0.64803
-0.767359
-0.8712
-0.960281
-1.03529
-1.09686
-1.1456
-1.18205
-1.20674
-1.22016
-1.22279
-1.21508
-1.19744
-1.17034
-1.13423
-1.0896
-1.03694
-0.976639
-0.908892
-0.834455
-0.754118
-0.668699
-0.579035
-0.485978
-0.390392
-0.293141
0.476035
0.566761
0.654017
0.736971
0.814812
0.886749
0.952022
1.00991
1.05972
1.10081
1.13314
1.15645
1.17034
1.17443
1.16838
1.15184
1.12451
1.08604
1.03607
0.974248
0.90017
0.813421
0.713553
0.600093
0.472538
0.330363
0.173031
-3.7405e-17
-0.189257
-0.37669
-0.535355
-0.675555
-0.798256
-0.904381
-0.994804
-1.07035
-1.13178
-1.17981
-1.21511
-1.23828
-1.24992
-1.25057
-1.24074
-1.22096
-1.19168
-1.1534
-1.10665
-1.05195
-0.989845
-0.920769
-0.844989
-0.763313
-0.67657
-0.585613
-0.491306
-0.394521
-0.296132
-0.19701
0.386449
0.480892
0.572756
0.661187
0.745344
0.824403
0.897561
0.964042
1.0231
1.07404
1.11675
1.15088
1.176
1.19168
1.1975
1.19306
1.17801
1.15194
1.11443
1.06505
1.00335
0.928827
0.840967
0.739206
0.622948
0.491564
0.344395
0.180767
-1.48536e-17
-0.198572
-0.395232
-0.560497
-0.70576
-0.832162
-0.940794
-1.03269
-1.10883
-1.17011
-1.21737
-1.2514
-1.27292
-1.2826
-1.28107
-1.26893
-1.24675
-1.21508
-1.17443
-1.12536
-1.06842
-1.00418
-0.933219
-0.856032
-0.772949
-0.684819
-0.592507
-0.496888
-0.398846
-0.299264
-0.19902
-0.0989815
0.293141
0.390392
0.485978
0.579035
0.668699
0.754118
0.834455
0.908892
0.976639
1.03694
1.0896
1.13423
1.17034
1.19744
1.21508
1.22279
1.22016
1.20674
1.18205
1.1456
1.09686
1.03529
0.960281
0.8712
0.767359
0.64803
0.512443
0.359793
0.189257
1.11673e-17
-0.208794
-0.415578
-0.588085
-0.738905
-0.869369
-0.980754
-1.07427
-1.15106
-1.21217
-1.2586
-1.29124
-1.31094
-1.31847
-1.31456
-1.29988
-1.27507
-1.24074
-1.1975
-1.14588
-1.08648
-1.0199
-0.946731
-0.867606
-0.78305
-0.693465
-0.599731
-0.502737
-0.403377
-0.302545
-0.201125
-0.0999915
-1.27615e-16
0.19701
0.296132
0.394521
0.491306
0.585613
0.67657
0.763313
0.844989
0.920769
0.989845
1.05195
1.10665
1.1534
1.19168
1.22096
1.24074
1.25057
1.24992
1.23828
1.21511
1.17981
1.13178
1.07035
0.994804
0.904381
0.798256
0.675555
0.535355
0.37669
0.198572
2.85145e-17
-0.220011
-0.437904
-0.618359
-0.775275
-0.910197
-1.0246
-1.1199
-1.1974
-1.25834
-1.30384
-1.33496
-1.35267
-1.35785
-1.35132
-1.33386
-1.30617
-1.26893
-1.22279
-1.16838
-1.10629
-1.03714
-0.961552
-0.880168
-0.793638
-0.702527
-0.607302
-0.508867
-0.408126
-0.305982
-0.20333
-0.101049
-1.38457e-16
0.0989815
0.19902
0.299264
0.398846
0.496888
0.592507
0.684819
0.772949
0.856032
0.933219
1.00418
1.06842
1.12536
1.17443
1.21508
1.24675
1.26893
1.28107
1.2826
1.27292
1.2514
1.21737
1.17011
1.10883
1.03269
0.940794
0.832162
0.70576
0.560497
0.395232
0.208794
6.3209e-17
-0.23232
-0.462404
-0.651579
-0.815185
-0.954999
-1.07272
-1.16997
-1.24826
-1.309
-1.3535
-1.38296
-1.39848
-1.40107
-1.39168
-1.37116
-1.34031
-1.29988
-1.25057
-1.19306
-1.12802
-1.05605
-0.977808
-0.893947
-0.805129
-0.712026
-0.615238
-0.515291
-0.413102
-0.309584
-0.20564
-0.102157
-1.48757e-16
0.0999915
0.201125
0.302545
0.403377
0.502737
0.599731
0.693465
0.78305
0.867606
0.946731
1.0199
1.08648
1.14588
1.1975
1.24074
1.27507
1.29988
1.31456
1.31847
1.31094
1.29124
1.2586
1.21217
1.15106
1.07427
0.980754
0.869369
0.738905
0.588085
0.415578
0.220011
7.70868e-17
-0.246073
-0.489777
-0.688033
-0.85898
-1.00416
-1.12553
-1.22492
-1.30407
-1.3646
-1.408
-1.43563
-1.44875
-1.44852
-1.43599
-1.41211
-1.3778
-1.33386
-1.28107
-1.22016
-1.15184
-1.07679
-0.995636
-0.90906
-0.817733
-0.722336
-0.623557
-0.522025
-0.418317
-0.313359
-0.208061
-0.103318
-1.59273e-16
0.101049
0.20333
0.305982
0.408126
0.508867
0.607302
0.702527
0.793638
0.880168
0.961552
1.03714
1.10629
1.16838
1.22279
1.26893
1.30617
1.33386
1.35132
1.35785
1.35267
1.33496
1.30384
1.25834
1.1974
1.1199
1.0246
0.910197
0.775275
0.618359
0.437904
0.23232
1.16985e-16
-0.261178
-0.519841
-0.728764
-0.907037
-1.05811
-1.18347
-1.28521
-1.36532
-1.42562
-1.4678
-1.49343
-1.50393
-1.5006
-1.48461
-1.45707
-1.41895
-1.37116
-1.31456
-1.24992
-1.17801
-1.09953
-1.01519
-0.925635
-0.831557
-0.733643
-0.632586
-0.529083
-0.423784
-0.317315
-0.210597
-0.104534
-1.6914e-16
0.102157
0.20564
0.309584
0.413102
0.515291
0.615238
0.712026
0.805129
0.893947
0.977808
1.05605
1.12802
1.19306
1.25057
1.29988
1.34031
1.37116
1.39168
1.40107
1.39848
1.38296
1.3535
1.309
1.24826
1.16997
1.07272
0.954999
0.815185
0.651579
0.462404
0.246073
1.26526e-16
-0.277768
-0.55286
-0.773498
-0.960732
-1.11731
-1.24705
-1.35137
-1.43252
-1.49257
-1.53343
-1.55687
-1.56448
-1.55775
-1.53799
-1.50641
-1.46412
-1.41211
-1.35132
-1.2826
-1.20674
-1.12451
-1.03663
-0.943813
-0.846719
-0.746046
-0.642489
-0.536744
-0.429514
-0.321461
-0.213256
-0.105808
-1.78789e-16
0.103318
0.208061
0.313359
0.418317
0.522025
0.623557
0.722336
0.817733
0.90906
0.995636
1.07679
1.15184
1.22016
1.28107
1.33386
1.3778
1.41211
1.43599
1.44852
1.44875
1.43563
1.408
1.3646
1.30407
1.22492
1.12553
1.00416
0.85898
0.688033
0.489777
0.261178
1.26526e-16
-0.295988
-0.589125
-0.822628
-1.01971
-1.18345
-1.31681
-1.42397
-1.50627
-1.56604
-1.60544
-1.62647
-1.63093
-1.62047
-1.59656
-1.56057
-1.5137
-1.45707
-1.39168
-1.31847
-1.23828
-1.15194
-1.06018
-0.963749
-0.863348
-0.759649
-0.65335
-0.545146
-0.435733
-0.325808
-0.216043
-0.107144
-1.87788e-16
0.104534
0.210597
0.317315
0.423784
0.529083
0.632586
0.733643
0.831557
0.925635
1.01519
1.09953
1.17801
1.24992
1.31456
1.37116
1.41895
1.45707
1.48461
1.5006
1.50393
1.49343
1.4678
1.42562
1.36532
1.28521
1.18347
1.05811
0.907037
0.728764
0.519841
0.277768
1.21322e-16
-0.316001
-0.628958
-0.876589
-1.08447
-1.25609
-1.39477
-1.50364
-1.58719
-1.64665
-1.68447
-1.70286
-1.70386
-1.6893
-1.66085
-1.62
-1.56812
-1.50641
-1.43599
-1.35785
-1.27292
-1.18205
-1.08604
-0.985641
-0.881583
-0.774567
-0.665263
-0.554362
-0.442554
-0.330525
-0.218964
-0.108544
-1.9657e-16
0.105808
0.213256
0.321461
0.429514
0.536744
0.642489
0.746046
0.846719
0.943813
1.03663
1.12451
1.20674
1.2826
1.35132
1.41211
1.46412
1.50641
1.53799
1.55775
1.56448
1.55687
1.53343
1.49257
1.43252
1.35137
1.24705
1.11731
0.960732
0.773498
0.55286
0.295988
4.32597e-17
-0.338116
-0.672975
-0.935858
-1.15561
-1.33588
-1.48038
-1.59265
-1.67599
-1.73512
-1.77118
-1.78668
-1.78387
-1.76483
-1.73139
-1.68523
-1.62784
-1.56057
-1.48461
-1.40107
-1.31094
-1.21511
-1.11443
-1.00968
-0.901609
-0.790928
-0.678328
-0.56447
-0.450035
-0.335699
-0.222135
-0.110012
-2.05135e-16
0.107144
0.216043
0.325808
0.435733
0.545146
0.65335
0.759649
0.863348
0.963749
1.06018
1.15194
1.23828
1.31847
1.39168
1.45707
1.5137
1.56057
1.59656
1.62047
1.63093
1.62647
1.60544
1.56604
1.50627
1.42397
1.31681
1.18345
1.01971
0.822628
0.589125
0.316001
1.13516e-16
-0.362414
-0.721337
-1.00135
-1.23375
-1.4235
-1.57441
-1.69042
-1.7752
-1.83219
-1.86634
-1.87865
-1.87168
-1.84771
-1.8088
-1.75681
-1.69338
-1.62
-1.53799
-1.44852
-1.35267
-1.2514
-1.1456
-1.03607
-0.923599
-0.808895
-0.692656
-0.575555
-0.458241
-0.341375
-0.225612
-0.111605
-2.12182e-16
0.108544
0.218964
0.330525
0.442554
0.554362
0.665263
0.774567
0.881583
0.985641
1.08604
1.18205
1.27292
1.35785
1.43599
1.50641
1.56812
1.62
1.66085
1.6893
1.70386
1.70286
1.68447
1.64665
1.58719
1.50364
1.39477
1.25609
1.08447
0.876589
0.628958
0.338116
2.08926e-16
-0.389111
-0.774474
-1.07331
-1.32009
-1.51975
-1.67769
-1.79779
-1.88417
-1.94065
-1.97075
-1.97958
-1.96803
-1.93866
-1.89375
-1.83536
-1.76531
-1.68523
-1.59656
-1.5006
-1.39848
-1.29124
-1.17981
-1.06505
-0.947742
-0.828623
-0.70839
-0.587713
-0.46724
-0.347599
-0.229426
-0.113352
-2.03075e-16
0.110012
0.222135
0.335699
0.450035
0.56447
0.678328
0.790928
0.901609
1.00968
1.11443
1.21511
1.31094
1.40107
1.48461
1.56057
1.62784
1.68523
1.73139
1.76483
1.78387
1.78668
1.77118
1.73512
1.67599
1.59265
1.48038
1.33588
1.15561
0.935858
0.672975
0.362414
2.52294e-16
-0.418445
-0.83286
-1.15238
-1.41495
-1.62611
-1.79112
-1.91571
-2.00385
-2.05978
-2.08742
-2.09033
-2.07376
-2.03846
-1.98697
-1.92155
-1.84424
-1.75681
-1.66085
-1.55775
-1.44875
-1.33496
-1.21737
-1.09686
-0.974248
-0.850283
-0.725667
-0.601063
-0.47711
-0.354425
-0.233609
-0.115268
-1.94835e-16
0.111605
0.225612
0.341375
0.458241
0.575555
0.692656
0.808895
0.923599
1.03607
1.1456
1.2514
1.35267
1.44852
1.53799
1.62
1.69338
1.75681
1.8088
1.84771
1.87168
1.87865
1.86634
1.83219
1.7752
1.69042
1.57441
1.4235
1.23375
1.00135
0.721337
0.389111
3.00866e-16
-0.450779
-0.897217
-1.23925
-1.51919
-1.74297
-1.91647
-2.04524
-2.13529
-2.19061
-2.21555
-2.21408
-2.18978
-2.14797
-2.08925
-2.01614
-1.93085
-1.83536
-1.73139
-1.62047
-1.50393
-1.38296
-1.2586
-1.13178
-1.00335
-0.874064
-0.744636
-0.615722
-0.487947
-0.361912
-0.238197
-0.11737
-1.84861e-16
0.113352
0.229426
0.347599
0.46724
0.587713
0.70839
0.828623
0.947742
1.06505
1.17981
1.29124
1.39848
1.5006
1.59656
1.68523
1.76531
1.83536
1.89375
1.93866
1.96803
1.97958
1.97075
1.94065
1.88417
1.79779
1.67769
1.51975
1.32009
1.07331
0.774474
0.418445
3.76327e-16
-0.486314
-0.967944
-1.33501
-1.63371
-1.87136
-2.05419
-2.18838
-2.27966
-2.3343
-2.35627
-2.34998
-2.31941
-2.26814
-2.20149
-2.11992
-2.02589
-1.92155
-1.8088
-1.6893
-1.56448
-1.43563
-1.30384
-1.17011
-1.03529
-0.90017
-0.765462
-0.631818
-0.499848
-0.370133
-0.243228
-0.119675
-1.74235e-16
0.115268
0.233609
0.354425
0.47711
0.601063
0.725667
0.850283
0.974248
1.09686
1.21737
1.33496
1.44875
1.55775
1.66085
1.75681
1.84424
1.92155
1.98697
2.03846
2.07376
2.09033
2.08742
2.05978
2.00385
1.91571
1.79112
1.62611
1.41495
1.15238
0.83286
0.450779
4.56991e-16
-0.525368
-1.04568
-1.44025
-1.75995
-2.01244
-2.20552
-2.34564
-2.43921
-2.49213
-2.51084
-2.49925
-2.46179
-2.40241
-2.32466
-2.23381
-2.13018
-2.01614
-1.89375
-1.76483
-1.63093
-1.49343
-1.3535
-1.21217
-1.07035
-0.928827
-0.788325
-0.649488
-0.512914
-0.37916
-0.248753
-0.122203
-1.64911e-16
0.11737
0.238197
0.361912
0.487947
0.615722
0.744636
0.874064
1.00335
1.13178
1.2586
1.38296
1.50393
1.62047
1.73139
1.83536
1.93085
2.01614
2.08925
2.14797
2.18978
2.21408
2.21555
2.19061
2.13529
2.04524
1.91647
1.74297
1.51919
1.23925
0.897217
0.486314
5.03829e-16
-0.568373
-1.13127
-1.55591
-1.89869
-2.16795
-2.37179
-2.51843
-2.61449
-2.66654
-2.6806
-2.66319
-2.61815
-2.54988
-2.46228
-2.35879
-2.24462
-2.11992
-1.98697
-1.84771
-1.70386
-1.55687
-1.408
-1.25834
-1.10883
-0.960281
-0.813421
-0.668887
-0.527259
-0.389071
-0.25482
-0.124979
-1.56454e-16
0.119675
0.243228
0.370133
0.499848
0.631818
0.765462
0.90017
1.03529
1.17011
1.30384
1.43563
1.56448
1.6893
1.8088
1.92155
2.02589
2.11992
2.20149
2.26814
2.31941
2.34998
2.35627
2.3343
2.27966
2.18838
2.05419
1.87136
1.63371
1.33501
0.967944
0.525368
5.60207e-16
-0.615643
-1.22536
-1.68328
-2.05117
-2.33884
-2.55506
-2.70829
-2.80709
-2.85817
-2.8682
-2.84325
-2.78989
-2.71184
-2.61342
-2.49843
-2.3702
-2.23381
-2.08925
-1.93866
-1.78387
-1.62647
-1.4678
-1.309
-1.15106
-0.994804
-0.840967
-0.690181
-0.543007
-0.399953
-0.261481
-0.128027
-1.48648e-16
0.122203
0.248753
0.37916
0.512914
0.649488
0.788325
0.928827
1.07035
1.21217
1.3535
1.49343
1.63093
1.76483
1.89375
2.01614
2.13018
2.23381
2.32466
2.40241
2.46179
2.49925
2.51084
2.49213
2.43921
2.34564
2.20552
2.01244
1.75995
1.44025
1.04568
0.568373
5.74952e-16
-0.66767
-1.32891
-1.82327
-2.21907
-2.52667
-2.75647
-2.91756
-3.01871
-3.06871
-3.07432
-3.04224
-2.97853
-2.88973
-2.77941
-2.65179
-2.51051
-2.35879
-2.20149
-2.03846
-1.87168
-1.70286
-1.53343
-1.3646
-1.1974
-1.03269
-0.8712
-0.713553
-0.560294
-0.411898
-0.268795
-0.131373
-1.42577e-16
0.124979
0.25482
0.389071
0.527259
0.668887
0.813421
0.960281
1.10883
1.25834
1.408
1.55687
1.70386
1.84771
1.98697
2.11992
2.24462
2.35879
2.46228
2.54988
2.61815
2.66319
2.6806
2.66654
2.61449
2.51843
2.37179
2.16795
1.89869
1.55591
1.13127
0.615643
5.60207e-16
-0.724915
-1.44285
-1.97735
-2.40362
-2.73349
-2.97783
-3.14755
-3.25197
-3.30006
-3.30079
-3.26086
-3.18698
-3.08511
-2.96173
-2.82022
-2.66462
-2.49843
-2.32466
-2.14797
-1.96803
-1.78668
-1.60544
-1.42562
-1.24826
-1.07427
-0.904381
-0.739206
-0.579268
-0.425011
-0.276823
-0.135048
-1.37372e-16
0.128027
0.261481
0.399953
0.543007
0.690181
0.840967
0.994804
1.15106
1.309
1.4678
1.62647
1.78387
1.93866
2.08925
2.23381
2.3702
2.49843
2.61342
2.71184
2.78989
2.84325
2.8682
2.85817
2.80709
2.70829
2.55506
2.33884
2.05117
1.68328
1.22536
0.66767
5.58473e-16
-0.787848
-1.56811
-2.14689
-2.60675
-2.96083
-3.22159
-3.40032
-3.50832
-3.55506
-3.54963
-3.50107
-3.416
-3.30102
-3.16199
-3.00522
-2.83387
-2.65179
-2.46228
-2.26814
-2.07376
-1.87865
-1.68447
-1.49257
-1.30407
-1.1199
-0.940794
-0.767359
-0.600093
-0.439404
-0.285635
-0.139081
-1.34337e-16
0.131373
0.268795
0.411898
0.560294
0.713553
0.8712
1.03269
1.1974
1.3646
1.53343
1.70286
1.87168
2.03846
2.20149
2.35879
2.51051
2.65179
2.77941
2.88973
2.97853
3.04224
3.07432
3.06871
3.01871
2.91756
2.75647
2.52667
2.21907
1.82327
1.32891
0.724915
5.54569e-16
-0.857083
-1.70591
-2.33327
-2.83025
-3.21104
-3.48952
-3.67866
-3.79006
-3.83531
-3.82391
-3.76501
-3.66764
-3.53824
-3.38328
-3.20841
-3.01976
-2.82022
-2.61342
-2.40241
-2.18978
-1.97958
-1.77118
-1.56604
-1.36532
-1.16997
-0.980754
-0.798256
-0.622948
-0.455201
-0.295308
-0.143509
-1.28265e-16
0.135048
0.276823
0.425011
0.579268
0.739206
0.904381
1.07427
1.24826
1.42562
1.60544
1.78668
1.96803
2.14797
2.32466
2.49843
2.66462
2.82022
2.96173
3.08511
3.18698
3.26086
3.30079
3.30006
3.25197
3.14755
2.97783
2.73349
2.40362
1.97735
1.44285
0.787848
5.46329e-16
-0.933246
-1.8575
-2.53831
-3.07595
-3.48635
-3.78441
-3.98461
-4.1003
-4.1433
-4.12535
-4.05594
-3.94414
-3.79888
-3.62641
-3.43295
-3.22393
-3.00522
-2.77941
-2.54988
-2.31941
-2.09033
-1.86634
-1.64665
-1.43252
-1.22492
-1.0246
-0.832162
-0.64803
-0.472538
-0.305925
-0.148369
-1.25663e-16
0.139081
0.285635
0.439404
0.600093
0.767359
0.940794
1.1199
1.30407
1.49257
1.68447
1.87865
2.07376
2.26814
2.46228
2.65179
2.83387
3.00522
3.16199
3.30102
3.416
3.50107
3.54963
3.55506
3.50832
3.40032
3.22159
2.96083
2.60675
2.14689
1.56811
0.857083
5.28115e-16
-1.01702
-2.02425
-2.76387
-3.34627
-3.78902
-4.10888
-4.32134
-4.44132
-4.48246
-4.45664
-4.37567
-4.24891
-4.08528
-3.89354
-3.67965
-3.44956
-3.20841
-2.96173
-2.71184
-2.46179
-2.21408
-1.97075
-1.73512
-1.50627
-1.28521
-1.07272
-0.869369
-0.675555
-0.491564
-0.317576
-0.153702
-1.23061e-16
0.143509
0.295308
0.455201
0.622948
0.798256
0.980754
1.16997
1.36532
1.56604
1.77118
1.97958
2.18978
2.40241
2.61342
2.82022
3.01976
3.20841
3.38328
3.53824
3.66764
3.76501
3.82391
3.83531
3.79006
3.67866
3.48952
3.21104
2.83025
2.33327
1.70591
0.933246
5.33319e-16
-1.10914
-2.20759
-3.01198
-3.64362
-4.122
-4.46559
-4.69184
-4.81665
-4.85526
-4.82145
-4.72706
-4.58384
-4.40095
-4.18707
-3.95071
-3.69745
-3.43295
-3.16199
-2.88973
-2.61815
-2.34998
-2.08742
-1.83219
-1.58719
-1.35137
-1.12553
-0.910197
-0.70576
-0.512443
-0.330363
-0.159556
-1.20459e-16
0.148369
0.305925
0.472538
0.64803
0.832162
1.0246
1.22492
1.43252
1.64665
1.86634
2.09033
2.31941
2.54988
2.77941
3.00522
3.22393
3.43295
3.62641
3.79888
3.94414
4.05594
4.12535
4.1433
4.1003
3.98461
3.78441
3.48635
3.07595
2.53831
1.8575
1.01702
5.37656e-16
-1.21049
-2.40932
-3.28479
-3.97071
-4.48829
-4.85803
-5.09916
-5.22962
-5.26557
-5.22244
-5.114
-4.95195
-4.74788
-4.51061
-4.24854
-3.96982
-3.67965
-3.38328
-3.08511
-2.78989
-2.49925
-2.21555
-1.94065
-1.67599
-1.42397
-1.18347
-0.954999
-0.738905
-0.535355
-0.344395
-0.165981
-1.19592e-16
0.153702
0.317576
0.491564
0.675555
0.869369
1.07272
1.28521
1.50627
1.73512
1.97075
2.21408
2.46179
2.71184
2.96173
3.20841
3.44956
3.67965
3.89354
4.08528
4.24891
4.37567
4.45664
4.48246
4.44132
4.32134
4.10888
3.78902
3.34627
2.76387
2.02425
1.10914
8.01768e-16
-1.32196
-2.6312
-3.58495
-4.33035
-4.89119
-5.28972
-5.54727
-5.68362
-5.71703
-5.66378
-5.53932
-5.35731
-5.12916
-4.86618
-4.57684
-4.2691
-3.95071
-3.62641
-3.30102
-2.97853
-2.66319
-2.35627
-2.05978
-1.7752
-1.50364
-1.24705
-1.00416
-0.775275
-0.560497
-0.359793
-0.173031
-1.22194e-16
0.159556
0.330363
0.512443
0.70576
0.910197
1.12553
1.35137
1.58719
1.83219
2.08742
2.34998
2.61815
2.88973
3.16199
3.43295
3.69745
3.95071
4.18707
4.40095
4.58384
4.72706
4.82145
4.85526
4.81665
4.69184
4.46559
4.122
3.64362
3.01198
2.20759
1.21049
2.56631e-16
-3.91509
-4.72605
-5.3342
-5.76457
-6.04022
-6.1831
-6.21335
-6.14938
-6.00744
-5.80286
-5.54902
-5.25697
-4.93763
-4.59898
-4.24854
-3.89354
-3.53824
-3.18698
-2.84325
-2.51084
-2.19061
-1.88417
-1.59265
-1.31681
-1.05811
-0.815185
-0.588085
-0.37669
-0.180767
-1.23928e-16
0.165981
0.344395
0.535355
0.738905
0.954999
1.18347
1.42397
1.67599
1.94065
2.21555
2.49925
2.78989
3.08511
3.38328
3.67965
3.96982
4.24854
4.51061
4.74788
4.95195
5.114
5.22244
5.26557
5.22962
5.09916
4.85803
4.48829
3.97071
3.28479
2.40932
1.32196
-5.16128
-5.82164
-6.28669
-6.58244
-6.73254
-6.75937
-6.68323
-6.52251
-6.29325
-6.01052
-5.68729
-5.33415
-4.96152
-4.57684
-4.18707
-3.79888
-3.416
-3.04224
-2.6806
-2.3343
-2.00385
-1.69042
-1.39477
-1.11731
-0.85898
-0.618359
-0.395232
-0.189257
-1.29133e-16
0.173031
0.359793
0.560497
0.775275
1.00416
1.24705
1.50364
1.7752
2.05978
2.35627
2.66319
2.97853
3.30102
3.62641
3.95071
4.2691
4.57684
4.86618
5.12916
5.35731
5.53932
5.66378
5.71703
5.68362
5.54727
5.28972
4.89119
4.33035
3.58495
2.6312
-6.35777
-6.86116
-7.17863
-7.33691
-7.36002
-7.27055
-7.08875
-6.83282
-6.51845
-6.16029
-5.77078
-5.35996
-4.93763
-4.51061
-4.08528
-3.66764
-3.26086
-2.8682
-2.49213
-2.13529
-1.79779
-1.48038
-1.18345
-0.907037
-0.651579
-0.415578
-0.198572
-1.34337e-16
0.180767
0.37669
0.588085
0.815185
1.05811
1.31681
1.59265
1.88417
2.19061
2.51084
2.84325
3.18698
3.53824
3.89354
4.24854
4.59898
4.93763
5.25697
5.54902
5.80286
6.00744
6.14938
6.21335
6.1831
6.04022
5.76457
5.3342
4.72605
3.91509
-7.49302
-7.83461
-8.00144
-8.02072
-7.91663
-7.71171
-7.42601
-7.07733
-6.68088
-6.25073
-5.79871
-5.33415
-4.86618
-4.40095
-3.94414
-3.50107
-3.07432
-2.66654
-2.27966
-1.91571
-1.57441
-1.25609
-0.960732
-0.688033
-0.437904
-0.208794
-1.49949e-16
0.189257
0.395232
0.618359
0.85898
1.11731
1.39477
1.69042
2.00385
2.3343
2.6806
3.04224
3.416
3.79888
4.18707
4.57684
4.96152
5.33415
5.68729
6.01052
6.29325
6.52251
6.68323
6.75937
6.73254
6.58244
6.28669
5.82164
5.16128
-8.55611
-8.7326
-8.74719
-8.62729
-8.39699
-8.07861
-7.69175
-7.25369
-6.77897
-6.28097
-5.77078
-5.25697
-4.74788
-4.24891
-3.76501
-3.30079
-2.85817
-2.43921
-2.04524
-1.67769
-1.33588
-1.01971
-0.728764
-0.462404
-0.220011
-1.63827e-16
0.198572
0.415578
0.651579
0.907037
1.18345
1.48038
1.79779
2.13529
2.49213
2.8682
3.26086
3.66764
4.08528
4.51061
4.93763
5.35996
5.77078
6.16029
6.51845
6.83282
7.08875
7.27055
7.36002
7.33691
7.17863
6.86116
6.35777
-9.53681
-9.5465
-9.40869
-9.15078
-8.79649
-8.3677
-7.88341
-7.36018
-6.81177
-6.25073
-5.68729
-5.12916
-4.58384
-4.05594
-3.54963
-3.06871
-2.61449
-2.18838
-1.79112
-1.4235
-1.08447
-0.773498
-0.489777
-0.23232
-2.40155e-16
0.208794
0.437904
0.688033
0.960732
1.25609
1.57441
1.91571
2.27966
2.66654
3.07432
3.50107
3.94414
4.40095
4.86618
5.33415
5.79871
6.25073
6.68088
7.07733
7.42601
7.71171
7.91663
8.02072
8.00144
7.83461
7.49302
-10.4257
-10.2685
-9.97959
-9.58613
-9.11127
-8.5762
-7.99915
-7.3958
-6.77897
-6.16029
-5.54902
-4.95195
-4.37567
-3.82391
-3.30006
-2.80709
-2.34564
-1.91647
-1.51975
-1.15561
-0.822628
-0.519841
-0.246073
-3.19952e-16
0.220011
0.462404
0.728764
1.01971
1.33588
1.67769
2.04524
2.43921
2.85817
3.30079
3.76501
4.24891
4.74788
5.25697
5.77078
6.28097
6.77897
7.25369
7.69175
8.07861
8.39699
8.62729
8.74719
8.7326
8.55611
-11.2141
-10.8915
-10.4544
-9.92917
-9.3383
-8.70211
-8.03785
-7.36018
-6.68088
-6.01052
-5.35731
-4.72706
-4.12535
-3.55506
-3.01871
-2.51843
-2.05419
-1.62611
-1.23375
-0.876589
-0.55286
-0.261178
-4.02351e-16
0.23232
0.489777
0.773498
1.08447
1.4235
1.79112
2.18838
2.61449
3.06871
3.54963
4.05594
4.58384
5.12916
5.68729
6.25073
6.81177
7.36018
7.88341
8.3677
8.79649
9.15078
9.40869
9.5465
9.53681
-11.8945
-11.4097
-10.8285
-10.1766
-9.4754
-8.74422
-7.99915
-7.25369
-6.51845
-5.80286
-5.114
-4.45664
-3.83531
-3.25197
-2.70829
-2.20552
-1.74297
-1.32009
-0.935858
-0.589125
-0.277768
-4.70873e-16
0.246073
0.519841
0.822628
1.15561
1.51975
1.91647
2.34564
2.80709
3.30006
3.82391
4.37567
4.95195
5.54902
6.16029
6.77897
7.3958
7.99915
8.5762
9.11127
9.58613
9.97959
10.2685
10.4257
-12.4604
-11.818
-11.0983
-10.326
-9.52125
-8.70211
-7.88341
-7.07733
-6.29325
-5.53932
-4.82145
-4.1433
-3.50832
-2.91756
-2.37179
-1.87136
-1.41495
-1.00135
-0.628958
-0.295988
-5.36793e-16
0.261178
0.55286
0.876589
1.23375
1.62611
2.05419
2.51843
3.01871
3.55506
4.12535
4.72706
5.35731
6.01052
6.68088
7.36018
8.03785
8.70211
9.3383
9.92917
10.4544
10.8915
11.2141
-12.9063
-12.1125
-11.2613
-10.376
-9.4754
-8.5762
-7.69175
-6.83282
-6.00744
-5.22244
-4.48246
-3.79006
-3.14755
-2.55506
-2.01244
-1.51919
-1.07331
-0.672975
-0.316001
-5.92304e-16
0.277768
0.589125
0.935858
1.32009
1.74297
2.20552
2.70829
3.25197
3.83531
4.45664
5.114
5.80286
6.51845
7.25369
7.99915
8.74422
9.4754
10.1766
10.8285
11.4097
11.8945
-13.2279
-12.2903
-11.3157
-10.326
-9.3383
-8.3677
-7.42601
-6.52251
-5.66378
-4.85526
-4.1003
-3.40032
-2.75647
-2.16795
-1.63371
-1.15238
-0.721337
-0.338116
-6.53019e-16
0.295988
0.628958
1.00135
1.41495
1.87136
2.37179
2.91756
3.50832
4.1433
4.82145